3371
Frame 1; Step count: 0; Realtime (MD) = 0.000000fs
OXY   -0.315000000   -22.236000000   19.709000000   -0.834000000
HYD   -0.352000000   -22.983000000   19.111000000   0.417000000
HYD   -1.053000000   -22.369000000   20.305000000   0.417000000
OXY   -11.566000000   -12.217000000   -24.929000000   -0.834000000
HYD   -11.422000000   -13.080000000   -25.319000000   0.417000000
HYD   -12.385000000   -11.911000000   -25.319000000   0.417000000
OXY   16.290000000   -3.367000000   -7.474000000   -0.834000000
HYD   15.887000000   -2.957000000   -8.240000000   0.417000000
HYD   15.855000000   -2.959000000   -6.725000000   0.417000000
OXY   -2.928000000   15.386000000   1.155000000   -0.834000000
HYD   -2.603000000   14.883000000   0.409000000   0.417000000
HYD   -2.138000000   15.688000000   1.604000000   0.417000000
OXY   -15.117000000   5.039000000   -15.721000000   -0.834000000
HYD   -15.874000000   5.118000000   -16.302000000   0.417000000
HYD   -14.360000000   5.118000000   -16.302000000   0.417000000
OXY   7.542000000   0.235000000   -17.732000000   -0.834000000
HYD   7.067000000   -0.596000000   -17.732000000   0.417000000
HYD   8.466000000   -0.016000000   -17.732000000   0.417000000
OXY   -16.741000000   11.476000000   -3.433000000   -0.834000000
HYD   -17.498000000   11.404000000   -2.851000000   0.417000000
HYD   -15.984000000   11.404000000   -2.851000000   0.417000000
OXY   4.242000000   -12.755000000   -24.721000000   -0.834000000
HYD   4.157000000   -13.659000000   -24.418000000   0.417000000
HYD   5.185000000   -12.590000000   -24.723000000   0.417000000
OXY   9.772000000   17.579000000   -1.141000000   -0.834000000
HYD   10.510000000   17.018000000   -0.904000000   0.417000000
HYD   9.053000000   16.969000000   -1.311000000   0.417000000
OXY   -12.527000000   4.988000000   5.554000000   -0.834000000
HYD   -11.764000000   5.538000000   5.733000000   0.417000000
HYD   -13.033000000   5.007000000   6.366000000   0.417000000
OXY   -18.660000000   21.765000000   6.087000000   -0.834000000
HYD   -19.426000000   22.091000000   5.615000000   0.417000000
HYD   -18.474000000   20.916000000   5.687000000   0.417000000
OXY   8.599000000   24.436000000   -23.125000000   -0.834000000
HYD   9.333000000   23.850000000   -22.938000000   0.417000000
HYD   7.866000000   23.850000000   -23.313000000   0.417000000
OXY   -10.175000000   -24.588000000   -14.594000000   -0.834000000
HYD   -9.684000000   -23.767000000   -14.594000000   0.417000000
HYD   -11.094000000   -24.319000000   -14.594000000   0.417000000
OXY   16.104000000   -23.735000000   -13.495000000   -0.834000000
HYD   15.351000000   -23.596000000   -12.921000000   0.417000000
HYD   15.761000000   -23.596000000   -14.378000000   0.417000000
OXY   17.832000000   3.615000000   -2.725000000   -0.834000000
HYD   17.823000000   3.018000000   -3.474000000   0.417000000
HYD   17.858000000   3.039000000   -1.961000000   0.417000000
OXY   -23.472000000   -8.685000000   -13.631000000   -0.834000000
HYD   -22.563000000   -8.857000000   -13.878000000   0.417000000
HYD   -23.974000000   -8.857000000   -14.427000000   0.417000000
OXY   12.973000000   20.445000000   9.381000000   -0.834000000
HYD   12.446000000   21.244000000   9.381000000   0.417000000
HYD   12.331000000   19.734000000   9.381000000   0.417000000
OXY   0.172000000   -5.663000000   0.593000000   -0.834000000
HYD   1.091000000   -5.933000000   0.593000000   0.417000000
HYD   0.203000000   -4.706000000   0.593000000   0.417000000
OXY   -3.229000000   4.609000000   1.860000000   -0.834000000
HYD   -2.285000000   4.520000000   1.729000000   0.417000000
HYD   -3.365000000   5.548000000   1.991000000   0.417000000
OXY   0.031000000   -24.698000000   1.097000000   -0.834000000
HYD   -0.084000000   -24.185000000   0.297000000   0.417000000
HYD   0.075000000   -24.045000000   1.796000000   0.417000000
OXY   12.510000000   12.470000000   13.214000000   -0.834000000
HYD   13.266000000   11.884000000   13.166000000   0.417000000
HYD   11.755000000   11.884000000   13.260000000   0.417000000
OXY   6.087000000   -3.025000000   -16.326000000   -0.834000000
HYD   5.530000000   -3.210000000   -17.082000000   0.417000000
HYD   5.562000000   -3.287000000   -15.570000000   0.417000000
OXY   20.024000000   -3.358000000   3.339000000   -0.834000000
HYD   20.492000000   -2.524000000   3.339000000   0.417000000
HYD   19.098000000   -3.114000000   3.339000000   0.417000000
OXY   -12.168000000   0.012000000   -21.807000000   -0.834000000
HYD   -12.644000000   0.296000000   -22.588000000   0.417000000
HYD   -11.267000000   0.296000000   -21.960000000   0.417000000
OXY   11.314000000   19.365000000   6.551000000   -0.834000000
HYD   12.012000000   20.012000000   6.452000000   0.417000000
HYD   11.772000000   18.530000000   6.649000000   0.417000000
OXY   -13.591000000   7.708000000   16.823000000   -0.834000000
HYD   -14.154000000   8.218000000   16.239000000   0.417000000
HYD   -13.116000000   7.117000000   16.239000000   0.417000000
OXY   14.817000000   -22.477000000   13.566000000   -0.834000000
HYD   13.870000000   -22.614000000   13.566000000   0.417000000
HYD   15.187000000   -23.360000000   13.566000000   0.417000000
OXY   3.733000000   -14.478000000   -11.678000000   -0.834000000
HYD   2.976000000   -14.304000000   -12.238000000   0.417000000
HYD   4.490000000   -14.304000000   -12.238000000   0.417000000
OXY   21.785000000   25.001000000   0.837000000   -0.834000000
HYD   21.028000000   25.053000000   1.421000000   0.417000000
HYD   22.542000000   25.053000000   1.421000000   0.417000000
OXY   -22.632000000   -15.638000000   -11.556000000   -0.834000000
HYD   -23.368000000   -15.813000000   -12.141000000   0.417000000
HYD   -21.904000000   -15.429000000   -12.141000000   0.417000000
OXY   -9.592000000   1.475000000   -23.010000000   -0.834000000
HYD   -8.827000000   1.123000000   -22.556000000   0.417000000
HYD   -9.783000000   2.297000000   -22.556000000   0.417000000
OXY   9.485000000   -8.255000000   24.114000000   -0.834000000
HYD   9.639000000   -7.310000000   24.114000000   0.417000000
HYD   8.532000000   -8.344000000   24.114000000   0.417000000
OXY   13.697000000   -20.065000000   -6.416000000   -0.834000000
HYD   14.440000000   -19.461000000   -6.416000000   0.417000000
HYD   12.927000000   -19.498000000   -6.416000000   0.417000000
OXY   8.416000000   1.481000000   -4.686000000   -0.834000000
HYD   8.945000000   0.895000000   -4.146000000   0.417000000
HYD   7.886000000   0.895000000   -5.227000000   0.417000000
OXY   -15.087000000   24.271000000   -6.696000000   -0.834000000
HYD   -14.242000000   23.820000000   -6.696000000   0.417000000
HYD   -14.862000000   25.201000000   -6.696000000   0.417000000
OXY   -4.318000000   -7.152000000   14.855000000   -0.834000000
HYD   -4.971000000   -7.738000000   14.471000000   0.417000000
HYD   -3.665000000   -7.738000000   15.238000000   0.417000000
OXY   -21.850000000   25.266000000   -8.564000000   -0.834000000
HYD   -22.604000000   24.680000000   -8.634000000   0.417000000
HYD   -21.096000000   24.680000000   -8.493000000   0.417000000
OXY   -11.539000000   7.943000000   22.573000000   -0.834000000
HYD   -11.684000000   7.357000000   21.830000000   0.417000000
HYD   -11.393000000   7.357000000   23.315000000   0.417000000
OXY   20.942000000   -3.948000000   18.530000000   -0.834000000
HYD   21.850000000   -4.251000000   18.530000000   0.417000000
HYD   21.008000000   -2.993000000   18.530000000   0.417000000
OXY   -21.659000000   8.221000000   -5.860000000   -0.834000000
HYD   -22.416000000   8.460000000   -6.395000000   0.417000000
HYD   -20.902000000   8.460000000   -6.395000000   0.417000000
OXY   -24.963000000   -22.031000000   9.749000000   -0.834000000
HYD   -25.720000000   -22.617000000   9.763000000   0.417000000
HYD   -24.206000000   -22.617000000   9.763000000   0.417000000
OXY   -16.169000000   19.680000000   23.558000000   -0.834000000
HYD   -16.926000000   19.819000000   24.126000000   0.417000000
HYD   -15.412000000   19.819000000   24.126000000   0.417000000
OXY   -18.658000000   17.482000000   5.302000000   -0.834000000
HYD   -19.230000000   16.896000000   5.797000000   0.417000000
HYD   -18.086000000   16.896000000   4.806000000   0.417000000
OXY   14.634000000   8.674000000   -16.903000000   -0.834000000
HYD   14.679000000   7.718000000   -16.875000000   0.417000000
HYD   13.946000000   8.863000000   -17.541000000   0.417000000
OXY   -13.457000000   24.648000000   -17.563000000   -0.834000000
HYD   -14.214000000   24.063000000   -17.529000000   0.417000000
HYD   -12.700000000   24.063000000   -17.529000000   0.417000000
OXY   -18.694000000   3.652000000   15.564000000   -0.834000000
HYD   -17.865000000   4.129000000   15.564000000   0.417000000
HYD   -19.364000000   4.336000000   15.564000000   0.417000000
OXY   -20.725000000   -6.447000000   -16.152000000   -0.834000000
HYD   -20.297000000   -6.814000000   -16.926000000   0.417000000
HYD   -20.660000000   -5.499000000   -16.269000000   0.417000000
OXY   -6.541000000   24.360000000   -18.939000000   -0.834000000
HYD   -5.883000000   23.774000000   -19.313000000   0.417000000
HYD   -7.199000000   23.774000000   -18.564000000   0.417000000
OXY   3.410000000   5.298000000   -17.223000000   -0.834000000
HYD   2.471000000   5.173000000   -17.076000000   0.417000000
HYD   3.824000000   4.571000000   -16.759000000   0.417000000
OXY   -12.487000000   6.148000000   -0.477000000   -0.834000000
HYD   -11.729000000   5.669000000   -0.142000000   0.417000000
HYD   -12.649000000   5.766000000   -1.340000000   0.417000000
OXY   14.228000000   -5.195000000   0.181000000   -0.834000000
HYD   13.426000000   -4.680000000   0.271000000   0.417000000
HYD   14.935000000   -4.558000000   0.292000000   0.417000000
OXY   -3.086000000   -10.830000000   -21.011000000   -0.834000000
HYD   -3.787000000   -11.081000000   -21.613000000   0.417000000
HYD   -3.410000000   -11.081000000   -20.147000000   0.417000000
OXY   -15.893000000   -0.915000000   -24.953000000   -0.834000000
HYD   -16.650000000   -1.480000000   -25.107000000   0.417000000
HYD   -15.136000000   -1.480000000   -25.107000000   0.417000000
OXY   23.151000000   -0.617000000   -5.754000000   -0.834000000
HYD   22.442000000   -1.203000000   -6.020000000   0.417000000
HYD   23.860000000   -1.203000000   -5.488000000   0.417000000
OXY   6.049000000   -16.416000000   -16.915000000   -0.834000000
HYD   6.601000000   -17.002000000   -17.432000000   0.417000000
HYD   5.496000000   -17.002000000   -16.397000000   0.417000000
OXY   -11.208000000   12.673000000   -12.875000000   -0.834000000
HYD   -11.925000000   12.087000000   -13.119000000   0.417000000
HYD   -10.492000000   12.087000000   -12.632000000   0.417000000
OXY   -23.118000000   -9.201000000   16.951000000   -0.834000000
HYD   -22.362000000   -9.787000000   16.910000000   0.417000000
HYD   -23.874000000   -9.787000000   16.992000000   0.417000000
OXY   11.631000000   -10.247000000   -12.907000000   -0.834000000
HYD   10.874000000   -9.672000000   -13.022000000   0.417000000
HYD   12.388000000   -9.672000000   -13.022000000   0.417000000
OXY   -22.904000000   17.526000000   1.812000000   -0.834000000
HYD   -23.707000000   17.492000000   1.292000000   0.417000000
HYD   -22.260000000   17.044000000   1.292000000   0.417000000
OXY   -14.441000000   -2.095000000   -0.103000000   -0.834000000
HYD   -15.383000000   -2.268000000   -0.103000000   0.417000000
HYD   -14.037000000   -2.963000000   -0.103000000   0.417000000
OXY   -7.176000000   11.897000000   -5.732000000   -0.834000000
HYD   -7.906000000   11.927000000   -6.350000000   0.417000000
HYD   -7.357000000   12.605000000   -5.113000000   0.417000000
OXY   20.204000000   -7.767000000   2.125000000   -0.834000000
HYD   19.522000000   -8.309000000   2.523000000   0.417000000
HYD   20.111000000   -6.914000000   2.549000000   0.417000000
OXY   6.123000000   24.840000000   1.438000000   -0.834000000
HYD   5.366000000   24.363000000   1.097000000   0.417000000
HYD   6.880000000   24.363000000   1.097000000   0.417000000
OXY   -5.789000000   8.077000000   -2.476000000   -0.834000000
HYD   -5.068000000   7.491000000   -2.707000000   0.417000000
HYD   -6.510000000   7.491000000   -2.244000000   0.417000000
OXY   1.019000000   -15.458000000   -7.202000000   -0.834000000
HYD   1.687000000   -16.044000000   -7.557000000   0.417000000
HYD   0.350000000   -16.044000000   -6.848000000   0.417000000
OXY   -1.997000000   -23.185000000   8.875000000   -0.834000000
HYD   -2.000000000   -24.142000000   8.875000000   0.417000000
HYD   -1.069000000   -22.948000000   8.875000000   0.417000000
OXY   8.691000000   -1.706000000   -19.409000000   -0.834000000
HYD   7.934000000   -1.543000000   -19.971000000   0.417000000
HYD   9.448000000   -1.543000000   -19.971000000   0.417000000
OXY   23.700000000   17.223000000   14.164000000   -0.834000000
HYD   24.389000000   16.802000000   13.649000000   0.417000000
HYD   22.891000000   16.802000000   13.871000000   0.417000000
OXY   3.882000000   -0.446000000   -11.151000000   -0.834000000
HYD   4.556000000   -1.126000000   -11.151000000   0.417000000
HYD   4.370000000   0.377000000   -11.151000000   0.417000000
OXY   -1.141000000   -20.665000000   -20.818000000   -0.834000000
HYD   -1.196000000   -19.720000000   -20.674000000   0.417000000
HYD   -2.052000000   -20.955000000   -20.862000000   0.417000000
OXY   -15.336000000   17.167000000   2.821000000   -0.834000000
HYD   -14.397000000   17.349000000   2.873000000   0.417000000
HYD   -15.747000000   18.031000000   2.798000000   0.417000000
OXY   23.881000000   -3.991000000   -15.519000000   -0.834000000
HYD   23.022000000   -4.412000000   -15.519000000   0.417000000
HYD   24.505000000   -4.717000000   -15.519000000   0.417000000
OXY   4.587000000   -16.998000000   -0.234000000   -0.834000000
HYD   4.571000000   -16.090000000   -0.536000000   0.417000000
HYD   5.429000000   -17.337000000   -0.536000000   0.417000000
OXY   -12.300000000   24.677000000   -8.117000000   -0.834000000
HYD   -13.249000000   24.772000000   -8.197000000   0.417000000
HYD   -12.127000000   24.772000000   -7.180000000   0.417000000
OXY   11.995000000   0.401000000   8.308000000   -0.834000000
HYD   11.238000000   0.321000000   8.890000000   0.417000000
HYD   12.752000000   0.321000000   8.890000000   0.417000000
OXY   -22.725000000   -7.290000000   -6.809000000   -0.834000000
HYD   -21.931000000   -6.768000000   -6.694000000   0.417000000
HYD   -23.422000000   -6.644000000   -6.924000000   0.417000000
OXY   -9.010000000   2.063000000   -17.673000000   -0.834000000
HYD   -9.767000000   1.889000000   -17.114000000   0.417000000
HYD   -8.253000000   1.889000000   -17.114000000   0.417000000
OXY   8.837000000   14.104000000   15.803000000   -0.834000000
HYD   8.080000000   14.427000000   16.292000000   0.417000000
HYD   9.594000000   14.427000000   16.292000000   0.417000000
OXY   -9.048000000   -21.851000000   23.826000000   -0.834000000
HYD   -8.814000000   -22.780000000   23.826000000   0.417000000
HYD   -8.208000000   -21.392000000   23.826000000   0.417000000
OXY   20.855000000   -23.345000000   -10.984000000   -0.834000000
HYD   20.098000000   -23.918000000   -10.860000000   0.417000000
HYD   21.612000000   -23.918000000   -10.860000000   0.417000000
OXY   -5.959000000   13.334000000   9.587000000   -0.834000000
HYD   -5.986000000   12.726000000   10.326000000   0.417000000
HYD   -5.666000000   12.801000000   8.848000000   0.417000000
OXY   8.426000000   17.951000000   14.954000000   -0.834000000
HYD   8.381000000   18.265000000   15.858000000   0.417000000
HYD   8.452000000   18.748000000   14.424000000   0.417000000
OXY   12.553000000   -9.735000000   4.406000000   -0.834000000
HYD   12.691000000   -8.789000000   4.357000000   0.417000000
HYD   13.381000000   -10.115000000   4.114000000   0.417000000
OXY   13.012000000   -17.994000000   -14.585000000   -0.834000000
HYD   12.468000000   -18.580000000   -15.112000000   0.417000000
HYD   13.555000000   -18.580000000   -14.058000000   0.417000000
OXY   -4.867000000   1.428000000   -2.925000000   -0.834000000
HYD   -5.665000000   1.957000000   -2.925000000   0.417000000
HYD   -5.179000000   0.523000000   -2.925000000   0.417000000
OXY   -17.848000000   15.720000000   -16.367000000   -0.834000000
HYD   -18.605000000   16.301000000   -16.444000000   0.417000000
HYD   -17.091000000   16.301000000   -16.444000000   0.417000000
OXY   16.902000000   11.230000000   -12.619000000   -0.834000000
HYD   16.152000000   10.644000000   -12.718000000   0.417000000
HYD   17.653000000   10.644000000   -12.520000000   0.417000000
OXY   21.531000000   -22.389000000   -6.362000000   -0.834000000
HYD   21.587000000   -22.975000000   -5.607000000   0.417000000
HYD   21.475000000   -22.975000000   -7.117000000   0.417000000
OXY   12.392000000   -7.498000000   23.841000000   -0.834000000
HYD   11.635000000   -7.864000000   24.298000000   0.417000000
HYD   13.149000000   -7.864000000   24.298000000   0.417000000
OXY   24.058000000   10.683000000   -15.942000000   -0.834000000
HYD   24.814000000   10.097000000   -15.984000000   0.417000000
HYD   23.302000000   10.097000000   -15.901000000   0.417000000
OXY   10.418000000   16.038000000   -11.298000000   -0.834000000
HYD   11.310000000   15.690000000   -11.298000000   0.417000000
HYD   10.531000000   16.988000000   -11.298000000   0.417000000
OXY   18.267000000   1.593000000   23.762000000   -0.834000000
HYD   18.998000000   0.974000000   23.762000000   0.417000000
HYD   18.683000000   2.455000000   23.762000000   0.417000000
OXY   -17.308000000   -0.226000000   8.570000000   -0.834000000
HYD   -18.065000000   0.348000000   8.454000000   0.417000000
HYD   -16.551000000   0.348000000   8.454000000   0.417000000
OXY   -11.523000000   -14.184000000   4.447000000   -0.834000000
HYD   -12.467000000   -14.025000000   4.447000000   0.417000000
HYD   -11.441000000   -15.138000000   4.447000000   0.417000000
OXY   -2.082000000   -24.470000000   21.138000000   -0.834000000
HYD   -1.385000000   -25.056000000   20.844000000   0.417000000
HYD   -2.780000000   -25.056000000   21.431000000   0.417000000
OXY   19.153000000   5.700000000   -14.939000000   -0.834000000
HYD   18.270000000   6.071000000   -14.939000000   0.417000000
HYD   19.014000000   4.752000000   -14.939000000   0.417000000
OXY   23.487000000   13.955000000   12.365000000   -0.834000000
HYD   23.487000000   13.369000000   13.122000000   0.417000000
HYD   23.488000000   13.369000000   11.608000000   0.417000000
OXY   -3.466000000   14.657000000   -21.811000000   -0.834000000
HYD   -4.223000000   14.914000000   -21.284000000   0.417000000
HYD   -2.709000000   14.914000000   -21.284000000   0.417000000
OXY   -14.029000000   2.426000000   3.966000000   -0.834000000
HYD   -14.786000000   3.010000000   4.013000000   0.417000000
HYD   -13.272000000   3.010000000   4.013000000   0.417000000
OXY   -24.939000000   24.107000000   7.798000000   -0.834000000
HYD   -25.077000000   23.521000000   8.542000000   0.417000000
HYD   -24.800000000   23.521000000   7.053000000   0.417000000
OXY   -6.799000000   5.906000000   -14.928000000   -0.834000000
HYD   -7.283000000   5.132000000   -14.638000000   0.417000000
HYD   -6.316000000   5.611000000   -15.699000000   0.417000000
OXY   0.339000000   11.901000000   22.199000000   -0.834000000
HYD   0.526000000   12.556000000   21.525000000   0.417000000
HYD   0.461000000   11.061000000   21.757000000   0.417000000
OXY   11.024000000   21.028000000   17.272000000   -0.834000000
HYD   11.608000000   20.967000000   18.028000000   0.417000000
HYD   11.598000000   20.906000000   16.515000000   0.417000000
OXY   0.887000000   16.244000000   -23.714000000   -0.834000000
HYD   0.544000000   15.351000000   -23.688000000   0.417000000
HYD   0.110000000   16.801000000   -23.654000000   0.417000000
OXY   -8.389000000   -21.552000000   -6.523000000   -0.834000000
HYD   -8.036000000   -22.136000000   -5.851000000   0.417000000
HYD   -8.819000000   -22.136000000   -7.147000000   0.417000000
OXY   -19.498000000   -5.050000000   22.850000000   -0.834000000
HYD   -20.255000000   -5.613000000   22.690000000   0.417000000
HYD   -18.741000000   -5.613000000   22.690000000   0.417000000
OXY   1.316000000   19.925000000   19.499000000   -0.834000000
HYD   1.006000000   19.215000000   20.062000000   0.417000000
HYD   1.303000000   20.699000000   20.062000000   0.417000000
OXY   -6.522000000   -15.670000000   -1.437000000   -0.834000000
HYD   -7.279000000   -15.818000000   -2.004000000   0.417000000
HYD   -5.765000000   -15.818000000   -2.004000000   0.417000000
OXY   21.932000000   -8.693000000   -16.622000000   -0.834000000
HYD   22.137000000   -9.279000000   -17.351000000   0.417000000
HYD   21.727000000   -9.279000000   -15.894000000   0.417000000
OXY   -8.198000000   -16.170000000   -15.388000000   -0.834000000
HYD   -8.955000000   -16.747000000   -15.490000000   0.417000000
HYD   -7.441000000   -16.747000000   -15.490000000   0.417000000
OXY   6.665000000   17.155000000   -13.267000000   -0.834000000
HYD   7.207000000   16.828000000   -12.549000000   0.417000000
HYD   7.280000000   17.305000000   -13.984000000   0.417000000
OXY   -14.863000000   -23.719000000   -8.958000000   -0.834000000
HYD   -15.043000000   -22.779000000   -8.958000000   0.417000000
HYD   -15.728000000   -24.129000000   -8.958000000   0.417000000
OXY   17.492000000   18.067000000   -11.662000000   -0.834000000
HYD   16.735000000   17.507000000   -11.834000000   0.417000000
HYD   18.249000000   17.507000000   -11.834000000   0.417000000
OXY   -9.879000000   18.260000000   -5.798000000   -0.834000000
HYD   -9.136000000   17.674000000   -5.939000000   0.417000000
HYD   -10.623000000   17.674000000   -5.657000000   0.417000000
OXY   3.096000000   9.656000000   8.931000000   -0.834000000
HYD   2.339000000   9.998000000   9.407000000   0.417000000
HYD   3.853000000   9.998000000   9.407000000   0.417000000
OXY   -7.243000000   24.590000000   11.765000000   -0.834000000
HYD   -8.000000000   24.251000000   12.243000000   0.417000000
HYD   -6.486000000   24.251000000   12.243000000   0.417000000
OXY   -11.458000000   -12.309000000   -18.735000000   -0.834000000
HYD   -10.667000000   -12.848000000   -18.735000000   0.417000000
HYD   -11.135000000   -11.408000000   -18.735000000   0.417000000
OXY   11.967000000   6.475000000   -10.811000000   -0.834000000
HYD   11.210000000   5.948000000   -11.068000000   0.417000000
HYD   12.724000000   5.948000000   -11.068000000   0.417000000
OXY   8.252000000   -0.188000000   22.332000000   -0.834000000
HYD   7.605000000   0.518000000   22.332000000   0.417000000
HYD   7.731000000   -0.991000000   22.332000000   0.417000000
OXY   22.865000000   -14.183000000   12.785000000   -0.834000000
HYD   22.141000000   -13.557000000   12.757000000   0.417000000
HYD   23.652000000   -13.639000000   12.813000000   0.417000000
OXY   -0.507000000   -9.547000000   8.983000000   -0.834000000
HYD   0.128000000   -10.133000000   8.569000000   0.417000000
HYD   -1.141000000   -10.133000000   9.395000000   0.417000000
OXY   -14.325000000   -8.237000000   -18.579000000   -0.834000000
HYD   -15.040000000   -8.823000000   -18.826000000   0.417000000
HYD   -13.609000000   -8.823000000   -18.334000000   0.417000000
OXY   15.423000000   -11.459000000   -10.618000000   -0.834000000
HYD   16.351000000   -11.225000000   -10.618000000   0.417000000
HYD   14.963000000   -10.619000000   -10.618000000   0.417000000
OXY   -5.974000000   -23.203000000   -11.058000000   -0.834000000
HYD   -6.250000000   -23.789000000   -10.353000000   0.417000000
HYD   -5.698000000   -23.789000000   -11.762000000   0.417000000
OXY   24.266000000   -1.953000000   9.067000000   -0.834000000
HYD   24.558000000   -2.865000000   9.067000000   0.417000000
HYD   25.075000000   -1.442000000   9.067000000   0.417000000
OXY   10.022000000   -12.041000000   19.056000000   -0.834000000
HYD   10.270000000   -12.961000000   18.966000000   0.417000000
HYD   9.123000000   -12.066000000   19.384000000   0.417000000
OXY   13.043000000   14.790000000   -18.886000000   -0.834000000
HYD   14.000000000   14.804000000   -18.886000000   0.417000000
HYD   12.790000000   15.713000000   -18.886000000   0.417000000
OXY   10.928000000   -7.139000000   -13.644000000   -0.834000000
HYD   11.029000000   -6.593000000   -12.864000000   0.417000000
HYD   10.834000000   -6.514000000   -14.363000000   0.417000000
OXY   0.919000000   22.401000000   -17.174000000   -0.834000000
HYD   1.670000000   22.996000000   -17.174000000   0.417000000
HYD   0.156000000   22.979000000   -17.174000000   0.417000000
OXY   22.975000000   7.635000000   22.905000000   -0.834000000
HYD   22.218000000   7.778000000   23.474000000   0.417000000
HYD   23.732000000   7.778000000   23.474000000   0.417000000
OXY   -6.321000000   17.484000000   -18.058000000   -0.834000000
HYD   -6.805000000   16.898000000   -18.641000000   0.417000000
HYD   -5.838000000   16.898000000   -17.476000000   0.417000000
OXY   16.063000000   15.876000000   -19.158000000   -0.834000000
HYD   16.037000000   16.230000000   -20.047000000   0.417000000
HYD   16.996000000   15.797000000   -18.958000000   0.417000000
OXY   6.144000000   11.725000000   -25.141000000   -0.834000000
HYD   5.262000000   11.425000000   -25.361000000   0.417000000
HYD   6.647000000   10.919000000   -25.015000000   0.417000000
OXY   12.445000000   -15.140000000   16.123000000   -0.834000000
HYD   11.955000000   -14.491000000   16.628000000   0.417000000
HYD   13.005000000   -14.622000000   15.545000000   0.417000000
OXY   1.483000000   17.908000000   -2.317000000   -0.834000000
HYD   2.240000000   17.322000000   -2.300000000   0.417000000
HYD   0.726000000   17.322000000   -2.335000000   0.417000000
OXY   -14.694000000   19.696000000   5.538000000   -0.834000000
HYD   -14.129000000   19.110000000   5.034000000   0.417000000
HYD   -15.259000000   19.110000000   6.042000000   0.417000000
OXY   19.217000000   -5.592000000   -1.295000000   -0.834000000
HYD   18.849000000   -6.476000000   -1.295000000   0.417000000
HYD   20.165000000   -5.728000000   -1.295000000   0.417000000
OXY   -7.848000000   16.023000000   -9.429000000   -0.834000000
HYD   -7.804000000   15.437000000   -8.674000000   0.417000000
HYD   -7.892000000   15.437000000   -10.186000000   0.417000000
OXY   -8.611000000   -15.209000000   -19.392000000   -0.834000000
HYD   -8.745000000   -14.261000000   -19.392000000   0.417000000
HYD   -9.494000000   -15.577000000   -19.392000000   0.417000000
OXY   22.865000000   25.260000000   -7.407000000   -0.834000000
HYD   22.108000000   24.819000000   -7.022000000   0.417000000
HYD   23.622000000   24.819000000   -7.022000000   0.417000000
OXY   -12.758000000   -8.920000000   -24.534000000   -0.834000000
HYD   -12.319000000   -9.506000000   -25.150000000   0.417000000
HYD   -13.196000000   -9.506000000   -23.915000000   0.417000000
OXY   10.624000000   1.342000000   -1.192000000   -0.834000000
HYD   10.133000000   0.519000000   -1.192000000   0.417000000
HYD   11.543000000   1.073000000   -1.192000000   0.417000000
OXY   -15.177000000   3.518000000   1.244000000   -0.834000000
HYD   -16.133000000   3.571000000   1.244000000   0.417000000
HYD   -14.989000000   2.579000000   1.244000000   0.417000000
OXY   -1.066000000   4.323000000   -22.774000000   -0.834000000
HYD   -1.445000000   3.785000000   -22.078000000   0.417000000
HYD   -0.361000000   3.785000000   -23.135000000   0.417000000
OXY   21.437000000   14.484000000   -1.614000000   -0.834000000
HYD   20.680000000   13.898000000   -1.589000000   0.417000000
HYD   22.194000000   13.898000000   -1.589000000   0.417000000
OXY   4.907000000   10.997000000   19.476000000   -0.834000000
HYD   3.984000000   10.763000000   19.382000000   0.417000000
HYD   5.383000000   10.226000000   19.166000000   0.417000000
OXY   -1.583000000   -3.456000000   0.420000000   -0.834000000
HYD   -1.191000000   -2.730000000   0.906000000   0.417000000
HYD   -1.975000000   -3.045000000   -0.351000000   0.417000000
OXY   9.886000000   0.405000000   -24.031000000   -0.834000000
HYD   10.836000000   0.517000000   -24.031000000   0.417000000
HYD   9.539000000   1.298000000   -24.031000000   0.417000000
OXY   -2.307000000   11.837000000   19.402000000   -0.834000000
HYD   -2.320000000   11.251000000   18.645000000   0.417000000
HYD   -2.293000000   11.251000000   20.158000000   0.417000000
OXY   1.757000000   -18.658000000   19.896000000   -0.834000000
HYD   2.668000000   -18.364000000   19.896000000   0.417000000
HYD   1.244000000   -17.849000000   19.896000000   0.417000000
OXY   -12.835000000   -7.523000000   12.393000000   -0.834000000
HYD   -12.153000000   -8.109000000   12.063000000   0.417000000
HYD   -13.516000000   -8.109000000   12.721000000   0.417000000
OXY   -14.151000000   1.604000000   16.353000000   -0.834000000
HYD   -14.504000000   1.018000000   17.021000000   0.417000000
HYD   -13.797000000   1.018000000   15.684000000   0.417000000
OXY   15.631000000   21.464000000   -24.270000000   -0.834000000
HYD   16.327000000   20.878000000   -23.973000000   0.417000000
HYD   14.935000000   20.878000000   -24.569000000   0.417000000
OXY   14.512000000   -3.801000000   5.287000000   -0.834000000
HYD   15.255000000   -4.387000000   5.426000000   0.417000000
HYD   13.767000000   -4.387000000   5.148000000   0.417000000
OXY   2.991000000   16.185000000   -6.291000000   -0.834000000
HYD   2.275000000   15.599000000   -6.045000000   0.417000000
HYD   3.707000000   15.599000000   -6.538000000   0.417000000
OXY   24.340000000   20.958000000   -11.676000000   -0.834000000
HYD   23.388000000   20.976000000   -11.775000000   0.417000000
HYD   24.574000000   20.035000000   -11.775000000   0.417000000
OXY   8.765000000   22.675000000   23.481000000   -0.834000000
HYD   9.352000000   23.431000000   23.481000000   0.417000000